# vtk DataFile Version 2.0
Sample data for VTK_PUVW_WRITE.                                                 
ASCII
DATASET UNSTRUCTURED_GRID
POINTS 24 double
     0.00000         0.00000         0.00000    
     1.00000         0.00000         0.00000    
     2.00000         0.00000         0.00000    
     3.00000         0.00000         0.00000    
     0.00000         1.00000         0.00000    
     1.00000         1.00000         0.00000    
     2.00000         1.00000         0.00000    
     3.00000         1.00000         0.00000    
     0.00000         2.00000         0.00000    
     1.00000         2.00000         0.00000    
     2.00000         2.00000         0.00000    
     3.00000         2.00000         0.00000    
     0.00000         0.00000         1.00000    
     1.00000         0.00000         1.00000    
     2.00000         0.00000         1.00000    
     3.00000         0.00000         1.00000    
     0.00000         1.00000         1.00000    
     1.00000         1.00000         1.00000    
     2.00000         1.00000         1.00000    
     3.00000         1.00000         1.00000    
     0.00000         2.00000         1.00000    
     1.00000         2.00000         1.00000    
     2.00000         2.00000         1.00000    
     3.00000         2.00000         1.00000    
 
CELLS 6 54
     8     0     1     4     5    12    13    16    17
     8     1     2     5     6    13    14    17    18
     8     2     3     6     7    14    15    18    19
     8     4     5     8     9    16    17    20    21
     8     5     6     9    10    17    18    21    22
     8     6     7    10    11    18    19    22    23
 
CELL_TYPES 6
 
POINT_DATA 24
SCALARS pressure double
LOOKUP_TABLE default
    0.212200-313
     0.00000    
     0.00000    
     0.00000    
     0.00000    
    0.101333-319
     0.00000    
     0.00000    
     0.00000    
     0.00000    
     0.00000    
     0.00000    
    0.495848-309
     0.00000    
     0.00000    
     0.00000    
     0.00000    
    0.628225-309
    0.495848-309
    0.494066-323
    0.695258-309
    0.495848-309
    0.495848-309
     30.0000    
VECTORS velocity double
     0.00000        0.628225-309    0.695258-309
    0.628225-309     0.00000        0.695258-309
    0.988131-323   -0.691692-322     0.00000    
     0.00000         0.00000         0.00000    
     0.00000         0.00000        0.495848-309
    0.495848-309    0.495848-309    0.628225-309
    0.495848-309    0.494066-323    0.695258-309
    0.495848-309    0.495848-309    0.628225-309
    0.494066-323     0.00000        0.345846-322
    0.717138+203    0.210078-311    0.206322-319
     0.00000        0.240225E+12    0.136362-320
    0.208693-319    0.321143-321    0.239786-311
    0.395253-322    0.494066-323     0.00000    
    0.252517-311    0.210078-311    0.695258-309
    0.495848-309    0.695258-309    0.790505-322
    0.628225-309    0.495848-309    0.790505-322
    0.790505-322    0.628225-309    0.495848-309
    0.628225-309     0.00000        0.628225-309
    0.695258-309    0.628225-309    0.212200-313
    0.717138+203    0.202369-319    0.695258-309
     0.00000         0.00000         0.00000    
     0.00000        0.202369-319    0.628225-309
    0.695258-309    0.695258-309    0.495848-309
     6.00000         6.00000         4.00000    
